                         Program Version 5.0.3 -  RELEASE  -
|  1> ! STEOM-DLPNO-CCSD RIJK def2-TZVP def2/JK def2-TZVP/C tightSCF noautostart miniprint nopop
|  2> %maxcore  180000
|  3> %pal nprocs   56 end
|  4> %cpcm
|  5> smd true
|  6> SMDsolvent "water"
|  7> end
|  8> %mdci
|  9> nroots 5
| 10> dotriplet true
| 11> end
| 12> * xyz   0   1
| 13> C      1.84541126   -0.41294921    0.00218866
| 14> C      0.39479392    0.00537486   -0.01977315
| 15> O     -0.43094674   -0.98407959   -0.01011158
| 16> O      0.04529889    1.18685667   -0.02047517
| 17> O     -2.21120960    0.01775293    0.02219507
| 18> H      1.97804743   -1.45224852   -0.33078564
| 19> H      2.20156411   -0.31803500    1.04326811
| 20> H      2.41681640    0.27944806   -0.63644979
| 21> H     -1.53965566    0.79959180    0.01830147
| 22>  *
| 23>
| 24>                          ****END OF INPUT****

CARTESIAN COORDINATES (ANGSTROEM)
---------------------------------
  C      1.845411   -0.412949    0.002189
  C      0.394794    0.005375   -0.019773
  O     -0.430947   -0.984080   -0.010112
  O      0.045299    1.186857   -0.020475
  O     -2.211210    0.017753    0.022195
  H      1.978047   -1.452249   -0.330786
  H      2.201564   -0.318035    1.043268
  H      2.416816    0.279448   -0.636450
  H     -1.539656    0.799592    0.018301

ORBITAL ENERGIES
----------------

  NO   OCC          E(Eh)            E(eV)
   0   2.0000     -20.739528      -564.3512
   1   2.0000     -20.640179      -561.6478
   2   2.0000     -20.561754      -559.5138
   3   2.0000     -11.397097      -310.1308
   4   2.0000     -11.237556      -305.7894
   5   2.0000      -1.471166       -40.0324
   6   2.0000      -1.363729       -37.1090
   7   2.0000      -1.342647       -36.5353
   8   2.0000      -1.004065       -27.3220
   9   2.0000      -0.779558       -21.2129
  10   2.0000      -0.751070       -20.4377
  11   2.0000      -0.674882       -18.3645
  12   2.0000      -0.663202       -18.0467
  13   2.0000      -0.659003       -17.9324
  14   2.0000      -0.612261       -16.6605
  15   2.0000      -0.567763       -15.4496
  16   2.0000      -0.548061       -14.9135
  17   2.0000      -0.494877       -13.4663
  18   2.0000      -0.481035       -13.0896
  19   2.0000      -0.468527       -12.7493
  20   0.0000      -0.037868        -1.0304
  21   0.0000       0.155599         4.2341
  22   0.0000       0.169208         4.6044
  23   0.0000       0.217122         5.9082
  24   0.0000       0.231768         6.3067

Total SCF time: 0 days 0 hours 0 min 18 sec

E(0)                                       ...   -302.593717623
E(0)                                       ...   -302.593717623
E(CORR)(strong-pairs)                      ...     -1.069632142
E(CORR)(weak-pairs)                        ...     -0.002506412
E(CORR)(corrected)                         ...     -1.072138554
E(TOT)                                     ...   -303.665856177
FINAL SINGLE POINT ENERGY      -303.665856176920

DIPOLE MOMENT
-------------
                                X             Y             Z
Electronic contribution:     -3.59520       0.23397      -0.07015
Nuclear contribution   :      5.18219      -0.54220       0.10088
                        -----------------------------------------
Total Dipole Moment    :      1.58700      -0.30823       0.03073
                        -----------------------------------------
Magnitude (a.u.)       :      1.61694
Magnitude (Debye)      :      4.10994

Rotational constants in cm-1:     0.381624     0.118726     0.092168
Rotational constants in MHz : 11440.807780  3559.315544  2763.136346

                             ****ORCA TERMINATED NORMALLY****
TOTAL RUN TIME: 0 days 0 hours 12 minutes 53 seconds 579 msec
