                         Program Version 5.0.3 -  RELEASE  -
|  1> ! DLPNO-CCSD(T) tightPNO RIJK cc-pVTZ cc-pVTZ/JK cc-pVTZ/C tightSCF noautostart miniprint nopop
|  2> %maxcore  180000
|  3> %pal nprocs   56 end
|  4> %cpcm
|  5> smd true
|  6> SMDsolvent "water"
|  7> end
|  8> * xyz   0   1
|  9> C      1.79000097   -0.42137635    0.00387073
| 10> C      0.41912149    0.17247782   -0.01243142
| 11> O     -0.52594238   -0.77588385   -0.01273259
| 12> O      0.13943098    1.33529806   -0.00604391
| 13> O     -1.82388376   -0.24478290    0.01577167
| 14> H      1.77564781   -1.45375966   -0.31548160
| 15> H      2.16464760   -0.36486824    1.02069799
| 16> H      2.43157876    0.16807588   -0.63723094
| 17> H     -1.67048146    0.70653125    0.01193806
| 18>  *
| 19>
| 20>                          ****END OF INPUT****

CARTESIAN COORDINATES (ANGSTROEM)
---------------------------------
  C      1.790001   -0.421376    0.003871
  C      0.419121    0.172478   -0.012431
  O     -0.525942   -0.775884   -0.012733
  O      0.139431    1.335298   -0.006044
  O     -1.823884   -0.244783    0.015772
  H      1.775648   -1.453760   -0.315482
  H      2.164648   -0.364868    1.020698
  H      2.431579    0.168076   -0.637231
  H     -1.670481    0.706531    0.011938

ORBITAL ENERGIES
----------------

  NO   OCC          E(Eh)            E(eV)
   0   2.0000     -20.672086      -562.5161
   1   2.0000     -20.642226      -561.7035
   2   2.0000     -20.568277      -559.6913
   3   2.0000     -11.401063      -310.2387
   4   2.0000     -11.233491      -305.6788
   5   2.0000      -1.558737       -42.4154
   6   2.0000      -1.420418       -38.6515
   7   2.0000      -1.267439       -34.4888
   8   2.0000      -1.015643       -27.6371
   9   2.0000      -0.850123       -23.1330
  10   2.0000      -0.736244       -20.0342
  11   2.0000      -0.707419       -19.2498
  12   2.0000      -0.702827       -19.1249
  13   2.0000      -0.614643       -16.7253
  14   2.0000      -0.599463       -16.3122
  15   2.0000      -0.596185       -16.2230
  16   2.0000      -0.559850       -15.2343
  17   2.0000      -0.532603       -14.4929
  18   2.0000      -0.482394       -13.1266
  19   2.0000      -0.473507       -12.8848
  20   0.0000       0.158821         4.3217
  21   0.0000       0.167572         4.5599
  22   0.0000       0.186551         5.0763
  23   0.0000       0.226232         6.1561
  24   0.0000       0.239452         6.5158

Total SCF time: 0 days 0 hours 0 min 14 sec

E(0)                                       ...   -302.694922948
E(0)                                       ...   -302.694922948
E(CORR)(strong-pairs)                      ...     -1.049472369
E(CORR)(weak-pairs)                        ...     -0.000781398
E(CORR)(corrected)                         ...     -1.050253767
E(TOT)                                     ...   -303.745176714
E(CCSD(T))                                 ...   -303.787059232
FINAL SINGLE POINT ENERGY      -303.787059232141

DIPOLE MOMENT
-------------
                                X             Y             Z
Electronic contribution:     -3.46857       0.60413      -0.05792
Nuclear contribution   :      4.58232      -0.93556       0.07845
                        -----------------------------------------
Total Dipole Moment    :      1.11375      -0.33143       0.02053
                        -----------------------------------------
Magnitude (a.u.)       :      1.16220
Magnitude (Debye)      :      2.95408

Rotational constants in cm-1:     0.368962     0.144278     0.105761
Rotational constants in MHz : 11061.197902  4325.348645  3170.627254

                             ****ORCA TERMINATED NORMALLY****
TOTAL RUN TIME: 0 days 0 hours 1 minutes 47 seconds 58 msec
